/*--------------------------------*- C++ -*----------------------------------*\
  =========                 |
  \\      /  F ield         | OpenFOAM: The Open Source CFD Toolbox
   \\    /   O peration     | Website:  https://openfoam.org
    \\  /    A nd           | Version:  6
     \\/     M anipulation  |
\*---------------------------------------------------------------------------*/
FoamFile
{
    version     2.0;
    format      ascii;
    class       surfaceScalarField;
    location    "0";
    object      phi;
}
// * * * * * * * * * * * * * * * * * * * * * * * * * * * * * * * * * * * * * //

dimensions      [0 3 -1 0 0 0 0];

internalField   nonuniform List<scalar> 
62948
(
-6.66524e-10
7.12338e-11
2.0933e-10
3.8596e-10
-5.88669e-10
1.69914e-10
-3.23384e-10
5.26557e-10
-9.06354e-11
-5.25551e-10
8.96287e-11
1.71308e-10
2.67057e-10
-5.88782e-10
-9.0703e-11
-3.78366e-07
-1.43065e-06
9.55423e-07
8.5359e-07
-2.25837e-06
2.32202e-06
-4.26532e-07
9.28804e-06
2.41921e-06
-1.24105e-05
7.03214e-07
5.43785e-06
2.46155e-06
-1.92581e-06
2.11206e-06
-3.28152e-10
7.05081e-11
6.44683e-11
1.93175e-10
4.14753e-10
-7.91569e-10
3.32724e-10
-7.85445e-11
2.56756e-10
8.82834e-11
-1.12066e-10
7.56072e-11
-3.78728e-11
7.43316e-11
4.02428e-10
-5.50885e-10
-3.15166e-10
2.6484e-10
8.13257e-11
-3.55696e-11
5.43362e-10
-6.12043e-10
-8.39817e-10
9.08498e-10
-3.64448e-11
4.83281e-11
4.85596e-10
-5.46859e-10
4.99916e-10
-2.15559e-09
9.2179e-10
2.56208e-10
-5.01889e-10
-2.90614e-10
5.36295e-10
-2.48628e-10
1.29589e-10
3.55639e-10
-7.31488e-10
4.67322e-10
-1.94897e-09
6.92274e-10
-2.86682e-10
-1.32348e-09
9.48734e-10
-1.24078e-09
3.38167e-10
3.29237e-06
3.11073e-06
-1.55357e-10
3.49026e-10
3.97364e-10
-5.91034e-10
4.46907e-10
3.0614e-10
-1.05149e-09
-7.82754e-11
2.44159e-10
2.62095e-10
2.37951e-10
-1.14938e-11
9.07747e-06
2.27757e-06
-9.70883e-06
-1.64621e-06
2.62438e-06
-8.17971e-06
1.46229e-05
2.32318e-06
5.77466e-07
-6.36493e-07
-6.30469e-07
5.57604e-06
7.29244e-10
-2.02426e-10
-5.62388e-10
2.73264e-10
4.38484e-10
-1.13576e-09
5.28993e-07
-5.13997e-07
-6.44749e-07
1.60099e-06
8.59268e-07
-1.88302e-06
3.30201e-06
-1.17396e-06
2.76535e-12
-4.11852e-11
6.28541e-12
3.21344e-11
-3.26181e-11
-1.71771e-11
4.97113e-11
-9.78067e-11
1.56134e-11
-3.568e-12
-3.28109e-11
1.21274e-11
2.42515e-11
-2.83182e-11
8.19214e-12
7.46737e-13
-5.84421e-12
-3.95384e-11
2.62196e-13
-4.32299e-11
1.1264e-11
-1.80739e-10
1.47509e-10
-1.976e-11
3.42054e-11
8.58152e-12
4.72625e-11
-9.91549e-11
-8.51637e-11
7.00667e-11
-1.23152e-09
-5.72318e-10
3.54817e-10
-2.37813e-09
-1.3349e-10
-2.08551e-09
7.60023e-10
-1.0803e-09
1.68248e-10
3.49614e-09
1.84045e-09
-5.50484e-09
2.94128e-09
-4.94531e-09
2.89175e-09
-5.48562e-11
-4.68237e-11
2.19413e-11
-1.1338e-12
2.60161e-11
1.08475e-12
-2.2792e-11
-3.65065e-11
-9.56986e-12
2.19628e-11
-7.87815e-13
-1.9727e-11
1.39818e-11
-7.36644e-12
-1.2443e-11
-1.84337e-11
5.10241e-12
2.35451e-12
1.08996e-14
1.2264e-11
9.24038e-12
4.79655e-11
3.07969e-11
-3.10785e-11
-4.76838e-11
2.31632e-11
1.3921e-11
-1.63524e-11
7.93497e-12
2.71372e-11
-1.406e-11
-9.22869e-12
2.6217e-11
1.72219e-11
4.8254e-11
1.14527e-10
-1.80003e-10
-1.5267e-10
8.28164e-11
1.07382e-12
3.85822e-11
1.61104e-10
2.57747e-11
-7.41733e-11
-1.12706e-10
8.49712e-12
3.13506e-11
9.74235e-11
1.16159e-10
-7.22799e-11
-4.3296e-11
6.13217e-11
3.71794e-11
-1.1925e-10
1.96635e-10
-9.60693e-11
1.86837e-11
-2.04637e-10
-4.05981e-11
9.13688e-11
8.19167e-11
-1.16207e-09
7.63574e-08
-3.78053e-08
-3.73899e-08
8.11939e-08
-8.11489e-08
-1.70238e-08
1.07613e-07
-1.26235e-08
6.66463e-08
2.25048e-07
5.17604e-07
-1.50651e-07
-5.92002e-07
6.04633e-07
-3.81771e-07
-1.08251e-07
5.84827e-07
3.91669e-08
4.94309e-07
-3.35485e-08
2.60785e-07
-3.91745e-09
-2.23319e-07
2.44001e-07
-2.75034e-07
-7.91532e-08
3.31819e-07
9.61968e-09
1.66306e-07
2.53657e-07
1.96267e-07
-4.49924e-07
7.37893e-08
2.60152e-07
-8.05402e-08
3.86138e-07
-1.87813e-07
1.54097e-07
3.11079e-07
-4.53095e-11
6.65846e-11
-4.61876e-11
2.49125e-11
6.99628e-11
-1.16711e-10
-1.22782e-11
-2.47885e-11
2.97225e-11
4.80651e-11
7.87365e-12
2.09128e-11
-2.24391e-10
-1.29456e-11
1.11119e-10
-3.13378e-10
1.36943e-10
-6.52546e-11
-4.34904e-10
1.08644e-10
1.82272e-10
1.43989e-10
8.76977e-11
-8.72994e-10
-3.81145e-10
1.56389e-10
2.8493e-10
-6.01741e-11
-6.69115e-10
3.22411e-10
1.21219e-10
1.04271e-10
6.36401e-11
8.09805e-11
6.79842e-11
1.32629e-12
1.46389e-08
6.84439e-07
-6.99078e-07
7.67317e-07
1.0091e-07
-8.62946e-07
7.01326e-07
-2.70113e-08
6.38366e-07
8.18163e-07
6.10506e-12
6.00202e-12
-1.21071e-11
3.45037e-12
-9.47242e-12
5.79899e-12
7.70862e-12
-6.09398e-12
-3.82026e-12
7.20216e-12
4.39556e-13
-1.01259e-11
6.02114e-13
3.32705e-11
-3.81948e-11
1.52794e-11
-2.96537e-11
-7.49343e-12
-4.82598e-12
6.3745e-12
5.94491e-12
1.03919e-12
-1.30911e-11
7.68019e-14
-8.794e-12
-1.91853e-12
-1.57137e-11
-4.25553e-12
3.87071e-12
3.94388e-12
-2.427e-11
5.53409e-12
2.2016e-12
-1.94729e-11
-6.90317e-12
1.52522e-13
-6.40467e-12
2.69862e-11
5.97165e-11
-7.23437e-11
-1.43589e-11
5.67834e-11
-7.11599e-11
2.47201e-11
5.57112e-11
-3.9699e-11
3.65298e-11
6.89978e-11
5.44796e-12
1.29144e-10
3.13649e-12
-1.62673e-10
3.03919e-11
-9.58367e-11
1.17982e-10
-1.14123e-10
1.77807e-11
1.25827e-11
4.55682e-11
-4.81963e-11
-9.95461e-12
5.11767e-11
-5.50109e-11
8.19493e-12
-2.88026e-13
1.78982e-11
1.91108e-11
1.36145e-11
1.70461e-11
1.28565e-10
-2.02303e-10
1.23374e-10
-4.96361e-11
-2.13238e-12
7.50416e-11
1.48513e-10
-7.99519e-11
-1.60391e-10
9.18302e-11
5.27951e-11
8.05413e-11
8.52362e-11
-3.76941e-10
4.22059e-11
1.88386e-11
-8.29494e-11
-3.54306e-10
3.08467e-10
1.28789e-10
-2.92259e-10
1.92768e-10
2.21972e-10
-2.6479e-10
-3.19962e-10
-8.27003e-11
-1.22352e-10
-3.14332e-10
1.45173e-10
2.91512e-10
-2.62458e-10
1.24772e-10
1.73764e-10
-3.484e-10
-1.4989e-10
-1.12994e-10
-7.01942e-12
2.45359e-11
-5.21239e-11
3.46075e-11
2.668e-11
-7.53479e-11
3.01325e-11
-3.31464e-12
4.38089e-12
2.00597e-11
-5.94618e-12
1.79592e-11
-1.4599e-10
6.44447e-11
1.76363e-12
1.00682e-10
-6.93673e-11
-1.86898e-10
2.58344e-11
1.26843e-11
-1.6414e-06
-4.5378e-07
1.24123e-06
8.53946e-07
-7.91925e-07
6.42745e-09
-8.58878e-07
-6.59521e-07
1.78888e-07
2.67435e-08
-5.70241e-07
-8.82171e-07
-1.66306e-06
-1.32086e-07
6.42497e-07
1.15265e-06
-8.48714e-07
-8.25355e-07
6.74322e-07
4.23464e-07
1.01271e-06
9.41667e-07
-8.88531e-07
-1.06584e-06
1.15281e-06
-1.42236e-07
-7.00084e-08
9.75491e-07
3.49782e-08
1.07825e-06
-1.29694e-10
-4.10055e-10
1.94567e-10
3.45182e-10
-3.47786e-10
1.90934e-10
2.68325e-10
-3.87959e-10
-3.14694e-10
-1.2841e-10
2.54901e-10
-2.53507e-10
-1.39413e-12
-3.26941e-10
1.28791e-10
3.97658e-10
1.69218e-10
-4.53565e-10
-2.59225e-10
4.97351e-11
-1.00078e-11
4.9471e-11
-4.58048e-11
6.34164e-12
5.02789e-11
-5.87737e-11
-1.99469e-11
1.06582e-11
-3.06929e-12
3.3379e-11
4.08358e-11
6.71732e-13
6.09934e-11
1.00163e-10
8.75518e-11
-2.48709e-10
-8.71402e-11
7.95282e-11
-1.47681e-11
3.95132e-11
-1.43411e-10
-4.41116e-10
2.01951e-10
3.82576e-10
-2.65346e-10
8.89057e-11
5.16683e-11
-3.3189e-10
-5.9887e-10
1.17911e-10
1.65469e-08
-4.42596e-06
4.01034e-06
3.9907e-07
-1.77971e-06
1.6194e-06
3.47602e-07
-2.6911e-06
-2.08082e-06
-2.66456e-06
1.23711e-06
-1.0854e-06
3.00247e-06
3.07517e-07
-4.77429e-07
1.60559e-07
9.35398e-09
-2.028e-07
1.9259e-07
3.15422e-07
8.17278e-07
-1.02363e-06
-2.71901e-07
3.24828e-07
2.88827e-07
-9.32246e-07
1.9246e-07
2.72726e-07
4.67061e-07
-3.95535e-07
-3.78917e-07
1.2324e-07
2.60073e-07
-9.57871e-11
-2.46835e-10
1.17544e-10
2.25078e-10
-1.59042e-10
5.0107e-11
1.15624e-11
-2.03034e-10
-7.15762e-11
-1.3796e-10
-6.87579e-13
2.0312e-11
-2.3343e-11
3.7186e-12
2.28238e-11
-2.66011e-11
-4.57393e-12
-1.4848e-11
2.20334e-11
1.01892e-11
-5.46695e-12
3.54997e-12
7.34509e-11
3.79693e-11
-1.55743e-11
-9.58459e-11
2.54155e-11
1.01692e-11
-9.08461e-12
9.22554e-12
-1.74122e-10
-3.52172e-10
3.1792e-10
2.08373e-10
-2.37417e-10
3.98676e-11
-6.53804e-11
-6.32846e-11
-2.37788e-10
-3.00124e-10
6.73028e-11
-1.685e-10
1.01197e-10
-2.35033e-10
1.24509e-10
1.60985e-10
5.38498e-11
-2.6164e-10
-4.63951e-11
-1.62318e-10
3.30741e-11
2.51678e-11
-3.38917e-11
1.94272e-11
-1.31015e-12
5.71303e-12
4.19207e-12
1.699e-11
1.15794e-12
1.16447e-11
-9.98984e-13
-5.11671e-11
2.10789e-11
2.6769e-11
-8.16171e-12
2.61823e-11
-7.84913e-11
-6.71406e-11
1.39623e-11
2.79419e-11
2.3683e-11
-4.51216e-11
-6.50333e-12
2.16675e-11
-1.96543e-11
1.2075e-11
1.51354e-11
2.98264e-12
1.21027e-12
1.11534e-11
1.65618e-11
-6.15599e-11
2.75521e-11
8.78164e-12
4.96714e-11
6.8031e-12
-1.23157e-10
-3.78389e-11
1.82058e-11
-1.91915e-10
-3.09421e-10
2.72313e-10
2.29022e-10
-2.02552e-10
5.15602e-12
-6.9821e-11
-3.13368e-10
6.56691e-11
-2.37195e-10
-3.95748e-11
8.82921e-13
3.86919e-11
-5.91939e-12
-3.08506e-11
-1.43803e-11
-1.04323e-10
2.49466e-11
7.42693e-11
-8.03618e-11
-5.17077e-11
4.15742e-11
-5.02143e-11
8.64017e-12
4.06609e-11
-8.36584e-12
-2.0947e-11
-7.75302e-12
-4.25659e-11
-5.55253e-11
-3.0668e-11
8.69758e-12
-4.27445e-11
-3.97452e-11
-4.99576e-11
-6.21927e-11
4.78183e-11
1.28504e-11
-4.71158e-11
-2.88229e-11
2.05676e-10
-2.17149e-10
1.14732e-11
-3.21383e-10
2.28672e-10
3.20475e-10
1.49757e-10
-3.58747e-10
-3.16338e-10
1.61751e-10
3.42618e-11
7.78235e-11
-7.02514e-11
-4.18338e-11
5.41038e-11
-2.20693e-11
-1.67838e-11
5.48878e-12
2.04024e-11
3.80673e-11
1.20066e-11
1.59297e-11
-1.81276e-10
-3.16411e-11
1.23047e-10
1.08309e-11
9.56398e-12
6.93587e-11
1.07608e-10
-3.22144e-11
1.40984e-11
-2.49662e-10
1.81866e-10
2.55441e-10
-3.31768e-10
5.41154e-11
-1.84296e-10
-8.97787e-11
-1.14091e-10
4.62534e-11
1.57616e-10
4.38874e-11
-2.788e-10
1.33495e-10
-2.92468e-10
1.707e-10
-2.174e-10
5.13921e-11
1.78908e-10
-1.29001e-11
5.73531e-11
-1.3831e-11
-2.77357e-10
-1.35532e-10
1.90537e-10
-1.58803e-11
7.25257e-11
-1.68936e-10
-4.09616e-10
8.00735e-11
-4.17007e-11
2.08704e-10
-5.38595e-11
4.34941e-11
-5.80599e-11
6.84253e-11
1.43859e-10
-2.34187e-10
3.95547e-11
-6.27929e-11
6.52956e-11
4.45132e-11
5.87789e-11
1.93786e-11
1.98277e-10
2.67817e-10
4.33034e-11
-5.09397e-10
-8.41282e-11
8.16806e-11
8.13888e-11
1.44384e-10
3.57463e-06
-6.98881e-07
-1.91278e-06
-9.62964e-07
-1.62401e-06
3.96006e-08
5.15795e-06
2.07149e-06
-2.01402e-06
-7.57961e-07
6.13886e-07
-1.66142e-07
3.95566e-06
2.90548e-07
1.65481e-06
-5.90102e-06
5.34766e-06
-7.76973e-07
-1.27015e-06
-4.52782e-07
-2.5727e-06
1.10357e-06
6.25411e-06
1.38328e-06
1.39199e-06
3.57676e-07
2.40167e-06
3.30809e-10
1.04287e-10
-3.10605e-10
-1.24491e-10
1.21268e-10
2.45323e-12
1.86353e-10
1.27232e-10
1.44007e-11
-5.06961e-11
1.34108e-10
9.68294e-11
-5.75812e-10
3.00213e-10
2.64606e-10
6.17969e-11
-2.15412e-10
-4.55381e-10
-8.3985e-11
-2.20018e-10
-2.68273e-10
-3.57097e-10
2.82036e-10
3.43334e-10
-2.47764e-10
-6.28502e-11
-1.20424e-10
-4.2222e-10
1.60873e-10
-4.4939e-10
-2.08006e-10
-2.23716e-10
2.68572e-10
1.6315e-10
-3.04594e-10
6.0424e-11
-5.56813e-11
-2.71606e-10
8.35952e-11
-4.75247e-10
-1.47111e-06
-3.15152e-07
5.58594e-07
1.22767e-06
1.68666e-08
6.12361e-07
-2.10339e-06
-1.63158e-06
1.29813e-06
1.58176e-08
1.19963e-07
-1.74604e-06
1.99204e-06
-2.22629e-06
3.47993e-07
-3.21377e-08
1.7805e-06
2.08215e-07
2.7409e-07
9.73335e-07
-2.05334e-07
-7.86498e-07
-7.61147e-07
-1.25988e-06
-1.19512e-06
-1.72211e-06
-9.68063e-07
1.77135e-06
9.18819e-07
-2.10656e-06
-8.84951e-07
1.22787e-06
-3.80568e-06
1.27619e-06
1.53641e-06
-2.32293e-08
-9.02177e-07
-2.88908e-06
-1.82075e-06
-3.42834e-07
3.02116e-06
-5.87373e-06
1.02709e-06
-6.04184e-07
2.6918e-06
-2.45091e-06
1.02797e-06
-4.48124e-06
7.69544e-06
1.8296e-06
-1.19977e-05
5.62604e-06
1.40764e-06
-1.30024e-07
-5.02596e-07
2.49217e-06
-1.85954e-06
-2.86974e-06
3.74447e-06
-1.19596e-06
2.49805e-06
5.91257e-13
5.73672e-13
-1.16493e-12
-7.32952e-13
-4.56442e-12
3.77282e-12
-2.86626e-12
1.08413e-12
1.20395e-12
-1.32757e-12
-5.12496e-12
3.09647e-12
-1.6425e-13
-2.93222e-12
6.36618e-13
5.45236e-13
-6.08923e-12
3.59234e-12
-4.11665e-12
1.20475e-12
9.80323e-12
-1.64983e-11
3.2671e-11
-2.59759e-11
-6.53617e-12
1.57131e-11
-3.14955e-12
2.36364e-11
6.53089e-12
-5.6117e-11
1.69271e-11
-5.49644e-12
7.28457e-12
-1.39751e-11
1.54356e-12
-2.84717e-12
1.26872e-12
-1.40893e-11
1.45479e-11
1.45168e-11
-5.50353e-11
3.29665e-11
4.9972e-12
-1.62015e-10
1.05141e-10
1.29239e-12
5.82255e-12
5.81287e-12
8.37413e-12
7.03704e-12
2.39187e-12
-4.36833e-12
-5.06058e-12
1.53785e-13
3.39616e-12
1.16882e-11
-5.26756e-12
-5.92996e-12
6.03545e-12
2.59975e-11
-1.487e-11
-2.20649e-11
1.22751e-11
-8.43025e-14
9.54654e-12
5.42804e-12
7.5998e-12
-6.3723e-11
-1.61809e-09
8.96964e-10
7.84845e-10
-1.75964e-09
7.20001e-10
8.70099e-10
-2.52967e-10
-1.58444e-09
5.90483e-11
-2.26027e-09
-2.57591e-06
-1.32099e-08
6.18712e-06
-3.598e-06
-5.43217e-07
-2.29941e-06
2.60138e-07
-2.36702e-06
5.77065e-06
-3.42117e-06
-2.88862e-07
-2.64501e-06
-4.10122e-07
-2.08076e-06
8.25854e-06
-1.32178e-06
2.01935e-06
-1.1168e-06
4.04123e-07
-2.0229e-06
-3.09459e-07
3.48109e-09
-5.0487e-07
8.10848e-07
-5.65601e-07
6.54331e-07
-1.63519e-06
3.63944e-06
2.04632e-09
5.69936e-08
-6.2527e-07
1.38203e-07
5.12788e-07
-6.49603e-07
-9.91375e-08
-4.29686e-07
5.84532e-07
-4.47577e-07
4.83607e-07
-3.89319e-07
3.93103e-07
-2.91995e-10
-1.32767e-10
2.69845e-10
1.54916e-10
-4.43103e-10
2.59032e-10
-1.48054e-10
-3.00416e-10
1.42566e-10
-7.44333e-11
-7.67095e-10
-1.24754e-09
-9.88993e-10
1.19912e-09
1.03741e-09
-4.89085e-09
2.1069e-09
1.44454e-09
-4.70826e-09
-4.41127e-10
2.6732e-10
6.4968e-09
-7.41482e-09
-4.0277e-09
1.24016e-09
4.02842e-09
-5.89041e-12
-6.63105e-11
4.61089e-11
2.6092e-11
1.42008e-10
8.0422e-11
1.94025e-10
-2.99369e-10
-3.09014e-12
6.93818e-11
6.77863e-11
2.86462e-11
-1.67469e-12
-5.21061e-10
-1.79477e-10
2.98658e-10
4.01881e-10
-1.28219e-09
7.2504e-10
-4.33851e-11
-2.64406e-10
6.04418e-11
-1.30529e-10
-1.52622e-09
-4.65044e-10
-3.06362e-10
4.81686e-10
2.8972e-10
-6.3785e-10
4.98535e-10
-4.06926e-10
-5.53299e-10
1.92773e-10
-4.44842e-11
-1.26843e-09
-8.67526e-10
1.9065e-10
6.76876e-10
1.62134e-10
8.64293e-10
-1.88354e-09
3.10065e-10
-6.97176e-10
5.00602e-10
4.21715e-10
4.54542e-10
-2.40045e-10
-2.14497e-10
-4.82469e-11
2.12997e-10
2.68917e-10
-5.08491e-10
2.67648e-10
1.79691e-10
-7.87132e-10
8.40272e-11
3.46897e-10
-3.60006e-10
-7.09187e-11
1.98495e-10
-1.41246e-10
6.10339e-11
1.3769e-10
1.04674e-10
2.74038e-10
-3.0016e-10
1.51852e-10
5.94765e-10
-1.07595e-09
1.84846e-10
3.26132e-10
-6.75901e-11
2.52253e-10
-6.33471e-11
3.7625e-11
-2.26531e-10
3.9761e-11
1.90598e-10
-7.62006e-11
9.40754e-11
2.01099e-10
3.18662e-10
-6.13837e-10
3.57142e-10
-4.90867e-10
1.39781e-10
-3.39516e-10
-7.17001e-11
3.70803e-10
-1.55835e-10
4.02305e-10
-6.04785e-10
-7.37661e-10
6.58536e-10
8.01226e-10
-1.71687e-09
-4.75393e-07
1.83212e-06
-3.86931e-07
-9.69798e-07
4.15821e-06
-1.29447e-06
-3.34806e-06
-3.69271e-06
4.69402e-06
8.25331e-07
2.18925e-07
2.36289e-07
2.63129e-06
6.731e-07
-3.08624e-06
1.10225e-06
-1.74559e-06
3.27313e-06
-7.83104e-08
5.86333e-06
1.50274e-07
-4.15038e-06
4.23476e-06
5.36631e-07
2.8516e-07
4.46381e-06
-3.25408e-06
7.60547e-06
-8.8152e-06
-2.50302e-06
1.61593e-06
5.34625e-06
4.02255e-06
-2.13913e-06
-5.13959e-06
1.48853e-06
1.35474e-08
-6.16665e-06
6.61063e-06
1.16979e-06
-8.54309e-06
9.07939e-06
-9.76083e-07
2.74782e-08
1.50978e-06
-6.82234e-06
-5.75981e-06
1.10724e-05
-1.06458e-06
-2.00914e-06
4.57051e-06
-8.18021e-06
5.42441e-06
-4.07116e-06
-7.71492e-06
-1.56433e-06
-1.95517e-06
-4.01857e-06
-5.00747e-06
1.09812e-05
6.39552e-07
-5.7276e-06
3.10791e-06
-4.4613e-06
5.83757e-06
-3.59106e-06
-2.45737e-07
-7.06672e-06
-6.09443e-07
4.56905e-06
4.05554e-06
-8.17946e-06
-4.45127e-07
-2.76288e-06
-4.08962e-07
-4.60358e-07
-2.56947e-06
2.43756e-06
-3.87563e-06
7.72877e-06
-1.67102e-06
8.39337e-06
-3.05294e-06
4.99496e-06
-1.02562e-06
-9.16399e-07
-4.0428e-06
1.47851e-06
-4.89535e-07
-7.95716e-06
2.2455e-06
1.01115e-06
1.09784e-07
1.52405e-06
2.00326e-06
-1.31412e-06
-2.21318e-06
3.08128e-06
-5.35354e-07
-1.03543e-06
-1.33438e-06
3.37717e-06
1.01823e-06
6.25891e-07
-8.48766e-08
-6.50502e-07
6.55427e-07
7.99514e-08
-4.51661e-07
3.54638e-07
-5.2431e-07
7.07925e-08
-7.29004e-07
-1.10828e-07
1.83229e-07
-9.57226e-07
-3.01576e-07
4.65819e-11
-6.25026e-10
2.2081e-11
5.56363e-10
-3.86862e-10
2.6614e-11
3.69504e-10
-1.46213e-10
-3.90834e-10
-1.2645e-10
-3.8529e-10
-2.45442e-10
3.75664e-12
-6.56695e-12
2.75114e-10
-2.72304e-10
3.17593e-10
-3.32421e-10
2.83616e-10
-3.24728e-10
5.21628e-10
1.38358e-09
-1.69552e-10
-1.73565e-09
1.9221e-10
2.37856e-10
-3.32334e-10
2.85798e-10
2.25737e-10
2.18168e-10
6.86814e-10
-1.0669e-09
4.01923e-10
6.6498e-10
3.66765e-10
9.14948e-10
-2.38217e-09
-4.84001e-10
3.98612e-10
4.30668e-10
-6.11924e-10
1.71464e-06
-6.1727e-07
-1.09737e-06
-1.42008e-06
3.91855e-06
-8.08353e-07
7.60387e-07
-8.03564e-07
-5.89604e-07
1.99647e-07
-8.96577e-07
-5.37157e-07
-7.76435e-07
-7.19142e-07
2.03273e-06
-1.68028e-07
-5.72777e-07
1.88457e-07
-7.06098e-07
8.44296e-07
-9.39454e-07
-1.63538e-07
-7.2393e-07
-3.27233e-10
-1.85397e-10
1.46759e-10
3.6587e-10
-6.89178e-10
-4.39603e-11
7.15398e-10
-1.63512e-09
1.75474e-10
4.62848e-10
-1.47712e-10
2.62275e-10
5.91283e-10
5.33454e-10
-1.22802e-09
3.97036e-10
-6.647e-10
4.12397e-10
8.60262e-10
-1.45015e-09
-7.82945e-11
-3.30091e-10
3.24756e-10
4.09327e-10
9.1589e-11
3.92444e-10
-1.94279e-11
9.15076e-12
1.81625e-11
-7.88532e-12
9.9103e-12
-4.69793e-11
1.26906e-11
-5.5586e-12
-1.50696e-11
2.17151e-11
-2.90455e-11
2.31532e-11
5.2156e-12
-1.08553e-11
-6.06352e-12
1.17032e-11
-5.63288e-12
-7.26664e-13
8.4548e-12
2.8852e-12
3.54252e-12
-2.03553e-11
1.70739e-12
-6.79234e-12
3.09067e-12
1.41409e-12
-1.46461e-11
5.26954e-12
-5.13842e-12
-4.92099e-12
5.86803e-12
1.39873e-10
1.79709e-11
-1.5211e-10
-5.73315e-12
5.91231e-11
4.56759e-11
2.34302e-11
1.10914e-11
1.97755e-13
7.53038e-12
-1.88195e-11
-8.63617e-13
6.93787e-12
-6.93945e-12
-3.31194e-12
-1.22483e-11
9.33584e-12
-1.52826e-11
-1.49107e-11
-1.68506e-11
2.21066e-11
9.6547e-12
-5.25584e-12
6.6755e-12
-1.54303e-11
-3.58142e-12
-1.17012e-11
-1.15255e-11
2.57956e-12
-8.66525e-11
9.6096e-12
3.06912e-11
4.63518e-11
1.07402e-10
5.88785e-12
-2.13411e-10
-7.18743e-11
2.63213e-11
2.41273e-11
1.23051e-11
5.07251e-12
-1.983e-12
1.02521e-11
-2.59538e-11
1.76847e-11
1.15153e-11
-2.84245e-11
1.35374e-11
1.08145e-11
-4.50726e-12
1.11285e-11
-3.72052e-11
2.0158e-11
3.31876e-11
1.49822e-10
2.89412e-11
-1.67743e-10
-5.18041e-12
9.16352e-11
-1.44919e-11
2.26183e-11
-2.56071e-11
-2.30292e-11
2.82222e-11
2.0414e-11
-1.87378e-11
-6.21247e-12
-9.26446e-12
-4.41169e-11
-1.61333e-11
3.49748e-11
-6.07158e-11
-1.5141e-11
-1.27622e-10
5.63711e-11
5.10415e-11
9.61935e-11
1.42838e-10
-3.77335e-10
7.8948e-11
-6.45983e-11
1.94405e-11
5.16561e-11
-2.54763e-11
1.76211e-11
2.54432e-11
-1.31768e-06
-3.03456e-07
-1.52201e-06
3.14315e-06
-1.41225e-07
-1.20448e-06
1.27429e-06
-1.40853e-07
-1.27992e-06
2.85532e-06
-1.92731e-06
3.99455e-11
1.5244e-10
6.20594e-11
8.13999e-11
1.2738e-10
-3.26015e-06
-4.59349e-06
3.58342e-06
4.27023e-06
-6.94458e-06
-5.94617e-06
9.62827e-06
3.10545e-06
-1.911e-06
-8.14875e-06
-8.08179e-07
-6.94794e-07
-1.597e-07
5.81312e-08
1.01568e-07
2.45295e-07
-2.90948e-07
-9.26748e-08
3.71545e-07
-4.14111e-08
-1.24985e-07
2.31639e-07
2.68115e-07
2.78773e-07
-1.40922e-07
-7.60712e-08
3.58e-07
3.3983e-08
-2.1267e-07
-2.02053e-06
-3.75897e-07
6.64062e-07
1.73236e-06
-1.43258e-06
-8.67614e-07
2.91368e-07
1.39405e-06
-7.32813e-07
-2.08787e-06
1.82777e-06
-7.86153e-07
8.4397e-07
4.95104e-07
-5.06035e-07
-8.3304e-07
6.41889e-07
7.74425e-07
-5.68778e-07
1.21636e-06
1.69367e-07
-8.87245e-07
2.78237e-06
-9.14617e-07
1.54842e-06
-3.28764e-07
-1.72045e-06
-8.21025e-07
2.30592e-06
6.58123e-08
1.6646e-07
-2.06562e-07
7.9422e-07
-3.08498e-07
3.70659e-07
-8.5638e-07
-8.97546e-07
1.43672e-06
2.52042e-07
-2.80392e-07
-1.19493e-06
1.16443e-06
-1.85819e-06
6.81573e-07
-6.73537e-07
-1.43079e-06
2.4558e-07
1.22556e-07
-7.72731e-07
-3.47275e-08
-5.28743e-07
-5.48384e-07
-7.17666e-06
1.36474e-07
1.83478e-07
6.85671e-06
-4.09468e-06
5.02473e-06
-8.14164e-06
-2.8573e-06
-3.5969e-07
9.13564e-06
-5.91865e-06
-1.23299e-06
-5.75591e-06
2.53997e-06
-5.70607e-06
6.85753e-06
-4.69661e-06
1.60602e-06
7.63853e-06
2.57912e-07
1.03187e-07
1.88741e-07
-5.4984e-07
1.02785e-07
-2.91169e-07
4.4133e-07
1.25228e-07
1.05293e-07
-1.29922e-07
2.23721e-07
9.398e-07
-1.41714e-07
-5.13926e-07
-2.84161e-07
-2.60254e-07
1.19871e-06
7.85619e-07
-5.82681e-07
-3.46535e-07
6.93338e-07
3.21538e-07
-6.18553e-08
-7.9317e-08
-1.80366e-07
5.15698e-09
3.86755e-07
3.05286e-07
-3.01507e-07
-6.32911e-08
3.15798e-07
-2.20146e-12
-2.03531e-12
3.71877e-11
-3.29509e-11
-6.88645e-12
3.19458e-11
-4.20282e-11
-1.42393e-12
-6.44642e-11
4.66115e-11
-6.78519e-11
3.70242e-11
-1.21327e-11
-3.23132e-11
4.44459e-11
-2.88181e-11
2.07023e-11
-4.53019e-11
1.98517e-11
-3.81388e-11
-4.58963e-11
1.11261e-11
5.10814e-11
-2.62479e-10
5.239e-11
-3.02102e-10
1.20722e-10
1.2899e-10
-1.94375e-10
1.03722e-10
1.22354e-10
6.18847e-10
-7.64267e-11
3.62115e-10
-9.04535e-10
7.59678e-11
2.82701e-10
2.47699e-10
-4.72356e-10
1.3788e-10
8.67771e-11
1.34404e-10
1.24698e-10
1.45839e-10
-8.06478e-10
-2.77802e-10
2.84278e-10
-1.3549e-10
1.23208e-10
8.77709e-11
-7.54887e-11
1.12945e-10
3.78273e-11
-1.70944e-10
1.13331e-10
1.61522e-10
1.34145e-10
-2.08918e-10
1.51612e-10
2.29444e-10
-2.81395e-10
-9.9661e-11
8.98566e-11
1.14094e-10
-7.31209e-11
2.0059e-10
-3.40179e-10
3.37004e-10
-7.58452e-11
3.1841e-10
-1.95839e-10
1.22028e-10
6.70924e-11
6.71895e-12
1.76139e-10
-3.35262e-10
-7.76659e-11
1.25184e-10
2.58195e-11
-2.10895e-11
1.26156e-10
9.26386e-12
5.04872e-07
2.51199e-07
-2.79392e-07
-4.76679e-07
6.31192e-07
-2.73159e-07
1.49281e-07
-6.18126e-07
9.99929e-08
1.15e-06
-3.60846e-07
2.82071e-07
3.74548e-08
-8.06043e-08
-2.38922e-07
2.55232e-07
7.07711e-09
2.32682e-08
1.1251e-07
-1.34989e-07
6.24791e-08
3.42389e-07
2.69123e-08
5.07948e-06
4.08359e-07
-1.55775e-06
-3.93009e-06
-8.71024e-07
-1.42072e-06
7.37351e-06
2.14741e-06
-1.53289e-07
-1.58166e-06
-3.34733e-06
4.62675e-06
5.68994e-07
-1.51978e-06
-6.03482e-07
2.72646e-06
-3.68929e-06
1.53316e-06
-3.61346e-06
4.92191e-06
-3.64116e-07
-4.73044e-08
3.38822e-07
7.25983e-08
-2.60591e-07
2.6334e-08
-1.27098e-07
-3.89268e-07
-5.61824e-08
4.00088e-07
-2.81086e-07
-3.66186e-07
-1.03232e-08
1.88138e-06
-1.11238e-06
-7.58675e-07
1.44878e-06
-8.08902e-07
-6.48116e-07
-1.54786e-06
2.58906e-06
4.08643e-07
1.4948e-06
-1.15614e-06
3.82221e-07
-2.30691e-07
-1.24226e-07
-8.49843e-08
4.69212e-07
-4.28382e-08
3.54132e-08
1.35931e-06
-9.27875e-07
-4.66849e-07
1.05468e-06
-7.01076e-08
-9.47907e-07
7.00158e-07
1.71731e-06
6.40477e-07
7.89036e-07
-7.84401e-07
-6.45112e-07
6.12873e-07
-8.80106e-08
1.16918e-07
5.22881e-07
-6.59048e-07
9.95573e-07
1.41102e-07
-4.3066e-07
2.12745e-06
-2.04463e-06
3.38324e-07
5.7516e-08
1.64879e-06
-1.55112e-06
-9.22411e-07
-6.49765e-07
3.11516e-06
2.40711e-06
-1.33726e-06
-9.28494e-07
2.26715e-06
-5.08127e-07
1.45885e-06
-4.27893e-07
-2.03301e-06
1.00205e-06
-1.3645e-06
-8.58203e-07
3.68284e-06
1.94533e-06
2.19621e-07
-2.16671e-06
2.75161e-06
1.45662e-06
-6.30121e-07
-4.04833e-07
-4.21668e-07
-1.55805e-06
2.30938e-06
7.04026e-07
3.874e-07
-4.42252e-07
-5.76537e-07
-9.51401e-07
-2.24795e-07
8.45287e-08
9.93582e-08
-4.36688e-07
2.52801e-07
-7.00046e-07
-6.77767e-08
8.53164e-07
1.4893e-06
1.86576e-06
1.08505e-06
-4.44011e-06
-7.51352e-07
2.34141e-06
-8.85109e-07
2.05823e-07
2.54572e-06
2.64609e-07
-1.90078e-06
1.97388e-07
1.88936e-07
-4.88769e-06
2.68697e-06
2.05665e-06
1.44074e-07
2.50342e-06
-2.64885e-06
-4.73424e-06
3.37498e-06
1.67304e-07
-1.03719e-06
3.48773e-06
2.5796e-06
-7.43773e-07
2.74725e-07
6.23987e-07
2.81754e-06
-2.05252e-06
-9.52133e-07
2.55575e-07
1.8121e-06
2.02857e-07
-3.90187e-06
2.2635e-06
6.14707e-07
-1.64335e-06
1.20592e-06
-9.55713e-08
-7.01328e-08
3.81906e-07
-4.40643e-06
1.03922e-07
1.99571e-07
-1.48206e-06
3.16065e-07
3.93771e-07
-9.07011e-08
-6.19135e-07
2.77159e-07
1.43934e-07
-1.0965e-07
6.36588e-07
4.93831e-07
-7.41958e-07
8.67184e-07
-9.91872e-07
1.63142e-06
2.27639e-07
-1.74615e-07
-3.38749e-07
6.52415e-07
1.20416e-06
-2.23665e-06
-8.51118e-07
1.00918e-06
2.07859e-06
-2.09376e-06
-1.18632e-06
1.04142e-06
-3.72439e-06
1.38012e-06
1.49386e-06
1.0217e-06
-1.16945e-06
-3.5834e-06
-1.39431e-06
2.79694e-07
3.34713e-06
-2.10212e-06
2.71476e-07
-1.51649e-06
-2.07225e-06
2.75956e-06
2.66394e-06
2.95012e-06
6.47123e-07
-5.69491e-06
-3.53765e-08
9.18559e-07
2.65271e-06
-1.05081e-06
-2.89658e-06
1.29468e-06
8.11114e-06
-2.6955e-06
-1.21645e-06
4.42013e-07
-1.01642e-06
-1.51058e-06
1.93419e-06
5.9281e-07
-9.84396e-07
2.55782e-06
-2.58744e-06
-9.72477e-07
-2.70841e-06
2.17256e-06
-1.91682e-06
-3.77737e-08
5.03507e-06
1.76559e-06
-5.88068e-06
-9.19985e-07
1.00295e-06
1.32767e-06
3.11697e-07
-4.62333e-07
1.87574e-07
1.29641e-06
-6.92961e-07
-7.91023e-07
1.39126e-06
-4.24087e-07
-7.77738e-07
2.82038e-07
1.1728e-06
-1.56759e-07
1.6529e-06
2.37905e-08
-1.73076e-06
-1.03847e-06
3.35723e-06
-5.87999e-07
-3.36639e-09
-2.40195e-06
6.75916e-07
-1.24719e-06
-8.61394e-07
1.07129e-06
-7.2814e-08
-3.04934e-07
-1.13378e-06
7.47229e-07
5.97516e-07
9.58958e-07
-1.86072e-06
1.12017e-06
-9.44671e-07
3.0284e-06
-1.30884e-07
-1.24378e-06
-1.38804e-07
2.31209e-06
-1.04034e-06
2.03364e-06
5.1036e-11
2.2577e-10
-1.39878e-10
-1.36927e-10
1.49876e-10
-7.75493e-11
-5.46814e-11
-1.3039e-10
1.41493e-10
-1.34786e-11
2.37593e-12
1.12187e-10
-1.24232e-10
-4.56403e-11
1.27921e-10
3.12004e-11
-1.6284e-10
1.00624e-10
1.33135e-11
-8.2815e-11
1.72567e-10
-1.02371e-11
3.14004e-10
4.13953e-11
6.68045e-11
-4.22203e-10
-5.54943e-12
2.61326e-10
1.53212e-11
2.17451e-10
-2.61223e-10
6.95974e-11
-1.898e-12
1.92059e-10
3.76722e-11
-9.28478e-12
-5.68312e-11
2.84437e-11
1.22152e-12
-1.87262e-11
3.87314e-11
-1.6469e-11
3.41579e-11
-1.7689e-11
1.52099e-11
-8.1303e-11
1.45445e-11
-3.0579e-12
-1.42567e-11
1.66362e-11
1.00013e-06
-4.14622e-09
1.29734e-07
-1.12572e-06
5.90109e-07
5.586e-07
-1.42742e-07
-5.96241e-07
3.58445e-07
2.52045e-07
-8.46891e-07
-6.20316e-07
-1.61595e-06
-1.07798e-06
3.31425e-06
-1.60645e-07
-1.2185e-06
7.59459e-07
-1.78803e-06
-1.32208e-06
2.94996e-06
-3.99563e-07
9.79422e-07
-2.36783e-06
-1.25833e-06
-1.83662e-07
1.19839e-07
-7.68676e-07
-8.88896e-07
-4.65775e-07
-1.70246e-07
-5.60032e-07
8.19369e-08
2.77438e-08
4.50351e-07
2.30115e-07
-1.69934e-06
9.16005e-07
-6.79178e-07
-6.90464e-07
1.4605e-06
-1.68845e-06
1.25402e-06
-5.45543e-07
-8.99889e-06
-8.22821e-06
4.14321e-06
-1.05917e-05
1.33122e-05
7.92613e-07
-4.38641e-06
-9.71839e-06
-1.2289e-06
1.59555e-05
-1.40518e-06
3.92319e-06
2.48548e-06
-5.60383e-06
2.68397e-06
2.60312e-08
-8.23681e-06
7.99948e-06
1.59259e-05
-8.96238e-06
-1.41977e-06
-1.36122e-06
2.05419e-06
-8.2197e-08
-7.47182e-07
-5.85131e-07
-8.94299e-07
-4.84227e-07
2.49562e-08
-4.65714e-07
-5.03008e-07
-2.1773e-06
-1.95415e-07
1.88444e-06
4.88279e-07
-1.15987e-06
-1.7572e-06
1.66089e-06
2.06912e-07
1.09121e-07
1.92849e-07
1.37894e-07
-4.39864e-07
3.82239e-07
-3.96111e-07
1.2846e-07
5.49952e-07
-1.4141e-10
-3.52488e-07
4.76803e-07
-2.11999e-07
-6.41641e-08
-1.495e-07
8.66997e-07
3.68803e-07
-4.36074e-07
-1.42909e-07
2.38807e-07
5.02013e-07
-2.83546e-07
-2.56342e-07
3.78741e-08
7.49847e-07
-3.13159e-07
-3.89779e-07
1.16086e-07
-5.35636e-08
2.22274e-07
-9.43431e-09
1.10311e-07
1.92831e-08
2.55591e-07
-6.18547e-07
3.13365e-07
3.74104e-08
2.1967e-07
-1.77912e-07
2.18645e-07
-1.6091e-07
-1.41632e-08
-1.62566e-07
-5.97524e-07
1.03629e-06
-8.04075e-07
3.267e-07
-5.58917e-07
-3.95519e-06
3.52198e-06
1.47277e-06
2.70281e-06
-9.93194e-07
-2.50504e-06
-2.61778e-06
1.37932e-06
-2.76315e-06
-2.14399e-06
1.69858e-05
-2.22155e-06
-2.06269e-07
6.81432e-07
7.03985e-07
2.5215e-06
4.2297e-06
1.24384e-06
-7.99504e-06
7.22602e-07
6.8726e-07
1.11166e-06
5.47425e-06
-2.0539e-06
8.11152e-07
3.86297e-06
2.33746e-06
-5.92417e-06
1.18517e-06
3.70234e-07
4.36877e-06
-2.886e-06
1.86938e-07
-3.22303e-06
-1.10146e-05
7.71026e-06
4.48954e-06
2.02596e-06
-1.59328e-05
-6.1961e-06
5.1396e-06
-9.16901e-07
1.9734e-06
-5.5281e-07
2.17719e-06
6.82716e-06
2.63832e-06
-1.94746e-07
-4.21982e-07
-2.45913e-07
1.95877e-06
-1.77192e-11
-2.36474e-11
2.70549e-11
1.43118e-11
-6.54029e-11
3.21447e-12
3.72775e-11
-4.94973e-11
3.60047e-11
-1.55262e-11
3.25446e-11
-1.58533e-10
3.66214e-12
-2.44718e-11
1.36021e-11
7.20759e-12
6.90127e-12
1.31189e-11
-5.4356e-12
5.99891e-12
1.43835e-10
6.89377e-11
-1.23168e-10
-8.96052e-11
4.82348e-11
6.87825e-11
1.06445e-11
-6.96322e-12
1.84427e-11
3.15915e-11
1.11775e-11
-4.15203e-11
1.63567e-11
3.11358e-14
2.82495e-12
-2.85608e-12
-5.24092e-12
4.38335e-12
-7.22736e-12
1.40541e-11
1.05517e-11
1.05361e-12
6.49433e-07
2.25476e-08
-7.03975e-07
5.53018e-08
-9.58727e-07
1.63695e-06
-9.52471e-07
-6.20769e-07
-5.8923e-07
-6.13386e-07
2.84483e-07
-6.40149e-08
4.26481e-08
-2.63116e-07
-3.44922e-07
1.02793e-06
-4.07264e-07
6.31993e-07
7.46421e-08
-7.85059e-07
1.55868e-06
-1.2942e-06
-3.95149e-07
1.50595e-06
-1.02085e-07
-2.47796e-07
-1.5419e-07
-2.26628e-07
2.55335e-07
-3.15051e-06
4.44122e-06
-8.74865e-07
-1.26048e-06
2.37897e-06
-8.29153e-07
-5.22321e-07
-3.06832e-07
4.7689e-08
-1.4817e-06
-4.84907e-07
2.98327e-11
-3.8013e-11
1.31162e-11
-4.93591e-12
-8.78331e-11
6.96081e-11
3.93946e-11
9.96972e-12
6.11354e-12
3.41938e-11
-1.31222e-10
-1.71161e-11
5.78305e-12
1.13331e-11
-8.47257e-12
-1.10816e-11
3.14103e-11
2.6836e-11
2.43639e-11
-2.118e-11
-9.93584e-12
6.75195e-12
-1.79293e-11
9.87348e-12
2.47223e-11
1.78109e-11
-2.69027e-11
-1.95023e-11
-8.89332e-12
-7.78314e-13
-1.04031e-11
1.62358e-11
-5.83265e-12
-2.41333e-11
-5.15729e-12
1.54494e-11
1.10143e-12
3.82765e-11
2.24688e-11
-7.04217e-11
1.31718e-11
-2.47814e-11
3.96032e-11
9.05176e-12
-1.02126e-11
-1.07598e-11
2.33254e-11
-6.51622e-11
-9.88957e-12
3.6928e-11
2.6374e-11
-1.11065e-10
4.77628e-11
7.8918e-12
2.47448e-11
-5.84009e-12
1.80725e-11
-1.86831e-11
2.39277e-11
-7.11953e-13
1.08332e-11
-3.07517e-11
-1.75951e-11
4.30272e-11
5.31961e-12
-1.64869e-11
3.47933e-12
-2.40513e-11
-5.76128e-11
2.60352e-11
9.02504e-12
-3.52546e-11
-4.675e-11
-3.48243e-11
8.73559e-12
2.60887e-11
-2.63895e-11
-1.40668e-11
5.89458e-12
3.52009e-11
4.00227e-12
-1.2092e-11