/*--------------------------------*- C++ -*----------------------------------*\
  =========                 |
  \\      /  F ield         | OpenFOAM: The Open Source CFD Toolbox
   \\    /   O peration     | Website:  https://openfoam.org
    \\  /    A nd           | Version:  6
     \\/     M anipulation  |
\*---------------------------------------------------------------------------*/
FoamFile
{
    version     2.0;
    format      ascii;
    class       volVectorField;
    location    "0";
    object      U;
}
// * * * * * * * * * * * * * * * * * * * * * * * * * * * * * * * * * * * * * //

dimensions      [0 1 -1 0 0 0 0];

internalField   nonuniform List<vector> 
33790
(
(7.83583e-05 0.000414717 0.000964281)
(-0.000262708 0.000489087 0.00154646)
(-0.000148384 0.00023852 0.000945969)
(-1.93952e-05 0.000401353 0.00101112)
(-0.00018771 0.000147624 0.00111052)
(-0.12994 -1.17705 -1.48743)
(1.18134 -1.07494 -1.18649)
(0.927536 -1.91023 -2.0295)
(0.125381 -2.50378 -2.11185)
(0.585233 -0.848286 -1.29731)
(0.00038084 -0.000200709 0.000119863)
(-3.84576e-05 1.64262e-05 0.00073565)
(1.98177e-05 -0.000248072 0.000958197)
(2.49422e-05 -0.000331938 0.000854563)
(0.000181998 2.67309e-06 0.000114468)
(-5.87811e-05 0.000193016 0.000641665)
(-6.38448e-05 -0.00016572 0.000824611)
(-4.21614e-05 -1.05444e-05 0.000839688)
(0.000146962 0.000165954 0.00108244)
(0.000114538 7.10441e-05 0.0010933)
(9.40633e-05 8.52097e-05 0.000898193)
(0.000134818 0.000187966 0.000991857)
(-9.52941e-05 0.00023168 0.000998212)
(-5.07988e-05 0.000318254 0.00121062)
(-8.80647e-05 0.000129122 0.000937842)
(-7.86535e-05 0.000178333 0.00106187)
(-1.03852e-06 0.000240611 0.000938215)
(0.000214042 3.42486e-05 0.000725297)
(0.639143 -1.90981 -2.30801)
(-0.000102076 0.00022204 0.000682652)
(-4.05034e-05 0.000387116 0.00079443)
(0.000350016 0.000331158 0.000776592)
(-0.000135572 -0.000224883 0.000778216)
(-6.50364 1.70241 -3.45582)
(-1.55091 0.225556 -6.97829)
(-8.43595 2.40529 -3.41748)
(2.26044 -4.27215 -11.0433)
(-0.000305277 -0.000187514 0.00123475)
(4.53772e-06 2.85871e-05 0.000667778)
(-6.39558e-06 -0.000406403 0.00115096)
(5.65155 -1.44359 0.974964)
(-8.22455 2.49221 -0.808032)
(1.34236 1.6782 -6.68864)
(-0.000255929 0.000162182 0.000348513)
(-0.000456246 -1.43337e-05 0.000415641)
(-0.000165332 -2.17294e-05 0.00049505)
(-1.56623e-05 3.00035e-05 0.000196208)
(-0.000104187 2.0425e-05 0.000222536)
(-0.000139575 3.8867e-05 0.000274343)
(-0.000335619 3.56567e-05 0.000339281)
(-0.00015526 4.68659e-06 0.000395783)
(-0.000166306 0.000131701 0.000286111)
(-0.000332706 1.92828e-05 0.000346511)
(-0.000225236 0.000255415 0.000389163)
(3.43895e-05 6.75162e-05 0.000765269)
(-3.37155e-05 0.000145629 0.000857804)
(-0.000269861 0.000323977 0.00122229)
(4.62326e-05 0.000321424 0.000947255)
(-0.000228488 0.000432759 0.00130631)
(-1.78281e-05 7.90902e-05 0.000845763)
(-5.07574e-05 0.000234224 0.000240134)
(-6.4973e-05 0.000176423 0.000282402)
(-3.568e-05 0.00019798 0.000198381)
(-0.000103483 0.000190858 0.000173675)
(-0.00011238 0.000155753 0.000217032)
(-3.69894e-05 0.000192929 0.000111099)
(9.47335e-05 0.000217583 0.000123566)
(-1.85675e-05 -1.97998e-05 0.000149223)
(-6.93412e-05 1.70011e-05 0.000123473)
(-0.000188006 -5.69111e-07 0.000123736)
(-0.00016447 3.38047e-05 7.79149e-05)
(-3.01618e-05 4.8516e-05 0.000344868)
(-3.88309e-05 3.39342e-05 0.000266611)
(-3.33432e-05 1.31766e-05 0.000260835)
(3.38156e-05 1.41684e-05 0.000389659)
(-0.000105053 9.79036e-06 0.000320913)
(1.5138e-05 2.42917e-05 0.000350269)
(-5.27473e-05 3.42407e-05 0.000290054)
(-1.49376e-05 -3.04114e-05 0.000402635)
(3.44068e-05 -1.62486e-05 0.000404051)
(-4.0515e-05 -5.0126e-05 0.000313811)
(-0.01798 0.0870327 0.0867727)
(0.0714333 0.0744141 0.126099)
(-0.0216798 0.0550852 0.108068)
(0.0395176 0.0503286 0.132979)
(0.422915 0.216735 0.581042)
(0.3073 0.128996 0.498385)
(0.376462 0.198875 0.595573)
(0.332443 0.144847 0.482703)
(0.381075 0.222783 0.270174)
(0.364248 0.177547 0.268524)
(0.26035 0.191569 0.308287)
(0.246198 0.144099 0.284429)
(0.640702 -0.00155961 0.179008)
(0.645425 0.0162122 0.184838)
(0.524064 -0.00510516 0.191326)
(0.452792 -0.0777816 0.0797537)
(-5.50231e-05 1.94304e-05 0.000246554)
(-2.8468e-05 1.75051e-05 0.000297112)
(-9.77781e-05 -1.96761e-05 0.000214423)
(-0.000139041 -6.74095e-06 0.000221459)
(-3.77118e-05 -1.04598e-05 0.000329799)
(-5.11361e-05 4.36783e-05 0.000341419)
(-5.20638e-05 2.51617e-05 0.000325258)
(-6.37363e-05 1.90263e-05 0.000339715)
(-0.000100788 3.05851e-05 0.000318817)
(-0.000164328 -5.08124e-06 0.00040601)
(-0.000108685 2.70039e-05 0.00030385)
(-5.62945e-05 -1.68769e-05 0.000297054)
(-0.000152691 3.01439e-05 0.000288791)
(0.0785975 -0.0195187 0.755426)
(0.0465932 0.174767 0.807186)
(0.0813075 -0.0098204 0.751388)
(0.014698 0.0615394 0.806612)
(-0.000208893 0.000127851 1.29122e-14)
(-0.000378798 0.000227978 0.000104405)
(-0.000257898 0.000116311 1.95138e-05)
(-0.000304345 0.000128206 0.000108569)
(-0.000203465 1.39398e-05 1.71824e-05)
(-0.000226599 0.000153775 0.000191313)
(-0.000219915 0.000122889 0.000148382)
(-0.000193628 -3.84008e-05 4.24102e-05)
(-0.000152741 -7.60257e-06 0.000129111)
(-0.00019019 -8.55407e-05 1.8369e-05)
(-0.00021268 -5.1546e-05 0.000108117)
(-0.000179978 -8.32056e-06 0.000308703)
(-5.11492e-05 2.20048e-05 0.000101218)
(-0.000180141 -1.27578e-05 2.21147e-05)
(-0.000201431 6.8948e-05 2.1065e-05)
(-0.000139038 8.2445e-05 0.000330672)
(-0.000119041 0.000571999 6.83475e-05)
(-0.000270481 5.30339e-05 0.000285011)
(-0.000218383 0.000165457 0.000191955)
(-0.0001564 0.000132908 0.000291016)
(-0.000161781 0.000152164 0.000239907)
(-0.000217306 0.000208543 0.000476202)
(-0.000363612 -0.000112216 0.000352698)
(-0.000525256 -0.000130073 0.00033286)
(-0.000155689 -0.000222435 0.000336151)
(-0.000180065 -0.000144585 0.000296601)
(-7.96335e-05 -0.000115492 0.000560126)
(-0.000156947 -4.59633e-05 0.000480162)
(-0.000117131 -5.97053e-05 0.000564479)
(-0.00013735 -8.11159e-05 0.0005096)
(-0.000145619 -5.87035e-05 0.000576701)
(-0.000224462 -6.30191e-05 0.000544852)
(-0.00014109 -1.13534e-05 0.000722353)
(-0.000111423 7.21985e-05 0.000575686)
(-0.000132946 0.00017641 0.00068693)
(-9.64281e-05 7.20157e-05 0.000586367)
(-0.000191998 6.98544e-05 0.000659097)
(-0.000179993 0.00011488 0.000587459)
(-0.000167439 5.14594e-05 0.00066608)
(-0.00012944 9.51281e-05 0.000587701)
(-0.00019323 0.000138629 0.000311443)
(-0.000182761 0.000146328 0.000308273)
(-0.000214935 0.000101628 0.000312164)
(-0.000176211 0.000116798 0.000269942)
(-0.000157876 0.000128598 0.000348116)
(1.67078e-05 6.21271e-05 0.000601735)
(-0.000109713 0.00013509 0.000484158)
(-0.136536 0.298817 0.674441)
(-0.0797167 0.290979 0.731624)
(-0.253679 0.439096 0.690303)
(-0.221838 0.438069 0.736764)
(-0.332466 0.209411 0.34165)
(-0.036385 0.216586 0.578261)
(-0.452189 0.268908 0.464003)
(-0.219063 0.252525 0.551888)
(-0.240238 0.144007 0.536064)
(-0.223534 0.160259 0.593316)
(-0.183648 0.10752 0.542902)
(-0.000163939 -7.00285e-06 0.000651606)
(-3.99885e-05 -0.000106563 0.000510945)
(0.000135942 -0.000429154 0.00117799)
(1.19587e-05 -5.98483e-05 0.000540733)
(5.57401e-05 -4.15947e-05 0.000631616)
(0.000123437 1.96556e-05 0.000712634)
(-3.10295e-05 -8.18348e-05 0.000681035)
(8.76924e-05 -0.000128497 0.00093355)
(1.85014e-05 -6.03846e-05 0.000386295)
(1.12658e-06 -0.000113708 0.000386017)
(-7.25234e-06 2.39849e-05 0.000388372)
(-4.61717e-05 -4.13698e-05 0.000354344)
(-2.37122e-06 -0.000201649 0.000584311)
(1.43251e-05 -0.000271797 0.000562475)
(5.32072e-05 -0.000175383 0.000484133)
(-0.000202603 7.93449e-05 0.000561519)
(5.08465e-05 0.000140185 0.000580137)
(5.59518e-05 3.32009e-05 0.00061917)
(-0.000164676 -8.16423e-05 0.000685099)
(-5.41416 -4.83076 -16.5625)
(-11.0894 11.4413 -1.03586)
(-11.1766 -9.46664 -11.8017)
(-11.3609 3.12019 -2.2646)
(-21.1367 -4.79557 -7.68094)
(2.59271 0.934016 1.66172)
(1.83069 0.951565 0.979929)
(3.21997 3.38826 0.749624)
(0.675448 3.71621 2.33578)
(-0.247243 1.45842 0.212662)
(0.287263 0.792445 0.934801)
(-0.223401 1.45333 0.218892)
(0.000112777 0.000113008 0.00051503)
(2.17175e-05 7.97066e-05 0.000390834)
(-8.08451e-05 0.000187208 0.000735478)
(-3.26489e-05 3.11682e-05 0.000412448)
(-0.000124508 3.7376e-05 0.000337436)
(-0.000146357 9.72713e-05 0.000305503)
(-0.00018094 0.000138286 0.000247334)
(-0.000210319 0.00010387 0.000276218)
(-0.000110517 8.72172e-05 0.000400671)
(-9.30797e-05 4.29704e-05 0.000348428)
(-0.000105837 7.82063e-05 0.000362375)
(5.45521e-05 -9.2216e-06 0.000707711)
(-5.79976e-05 -2.89185e-06 0.000410328)
(-7.18542e-05 0.000454327 0.00122041)
(-0.000163265 -5.57611e-05 0.000406359)
(8.58554e-06 0.000168769 0.000347057)
(0.000154743 0.000207497 0.000387158)
(-1.68985e-06 7.43223e-05 0.000556678)
(-1.07941e-05 6.11267e-05 0.000415891)
(-4.23774e-05 4.68756e-05 0.00038519)
(-4.75174e-05 3.41223e-05 0.000315439)
(-0.000308416 5.26614e-05 0.000377961)
(-0.000191578 3.89341e-05 0.000269888)
(-5.81204e-05 -4.17951e-05 0.000284316)
(-2.53591e-05 9.32677e-05 0.000477708)
(-4.55362e-05 0.000116626 0.00048385)
(-0.000123374 7.03433e-06 0.000225005)
(-0.000107531 2.41801e-05 0.000254798)
(-0.000176464 4.08097e-05 0.000184625)
(-0.000153677 7.40541e-05 0.000189333)
(-0.000172409 7.19543e-05 0.000400776)
(-0.000143329 8.2276e-05 0.000444164)
(-0.000100808 3.24066e-05 0.000322221)
(-0.000111365 1.38902e-05 0.000765519)
(-5.06261e-05 -8.34834e-05 0.000748266)
(6.36602e-05 -9.2183e-05 0.000843131)
(5.54009e-05 -8.10241e-05 0.000771157)
(-0.000243996 8.18313e-05 2.24057e-14)
(-0.000200778 0.000108159 0.000219599)
(-0.000234899 0.000128221 0.000180041)
(-0.000172647 0.000111839 0.000407678)
(-0.000250704 0.000142268 -8.2961e-15)
(-0.000218684 0.000158339 3.63582e-05)
(-0.000279026 0.000100887 0.000241599)
(-0.000208519 0.000121114 0.000414502)
(-0.000168622 9.43297e-05 0.000248587)
(-0.00019359 5.73649e-05 0.000394386)
(-0.000209016 9.16112e-05 0.000136719)
(-0.000169858 5.04384e-06 0.000433624)
(-7.31213e-06 -6.67037e-05 0.000583454)
(0.000104192 -0.000108707 0.000728413)
(-6.41016e-05 -2.43032e-05 0.000607337)
(-3.72608e-05 -3.22267e-05 0.000728764)
(-4.55765e-05 -3.85004e-05 0.00047396)
(-1.90443e-05 -0.000261077 0.000402419)
(-1.72557e-05 5.16376e-06 0.000450045)
(2.166e-05 6.137e-05 0.000276431)
(2.66193e-05 0.00073789 0.000398281)
(-3.02471e-05 0.000178808 0.00067682)
(3.20305e-05 0.000569827 0.000417002)
(1.69829e-05 -0.000184933 0.000413252)
(-8.95693e-05 0.000453265 0.000895463)
(-8.16018e-05 0.000115728 0.000785075)
(-0.000181382 0.000177629 0.000859473)
(0.000142627 3.41748e-05 0.000513451)
(7.78857e-05 6.09321e-05 0.000533426)
(0.000113993 2.89926e-05 0.000734443)
(8.57632e-05 1.23294e-05 0.000486147)
(1.90681e-05 0.000101379 0.000530567)
(7.07428e-05 8.5645e-05 0.000355789)
(3.79152e-05 0.000172837 0.000444866)
(3.62458e-05 7.45631e-05 0.000489238)
(1.34877e-05 5.89221e-06 0.00036923)
(-0.00030984 -0.00018454 0.000279734)
(-9.76835e-05 -8.91778e-05 0.00046239)
(-0.000319866 0.00011575 0.000283966)
(-0.000331776 0.000157814 0.000501825)
(-6.55845e-05 0.000156757 0.000477742)
(-0.000238414 0.000122137 0.000522536)
(-0.00020049 -4.93829e-06 0.000427014)
(4.89037 1.66496 -2.67945)
(2.62485 2.8777 -5.97909)
(5.04811 0.84093 -1.33512)
(3.70946 1.40429 -2.86566)
(5.95807 6.7685 -1.90072)
(7.1911 4.11901 -5.28832)
(2.98226 1.30609 0.169325)
(-11.7933 19.3043 9.89403)
(3.81199 3.61828 -7.00426)
(-3.61286 -1.31828 -1.09505)
(-0.000156484 2.45627e-05 0.000540822)
(-9.94764e-05 -4.98324e-05 0.000611055)
(-0.000122259 -5.21865e-05 0.000686477)
(-0.000100867 -8.98583e-05 0.000637372)
(-0.00012873 4.74485e-05 0.000636237)
(-0.000202062 -0.000127232 0.000764211)
(-0.000197145 -0.000112426 0.00066899)
(-2.24653e-05 1.32221e-05 0.000580141)
(5.04611e-07 -5.36245e-05 0.000506145)
(9.93817e-05 -4.32689e-05 0.000553674)
(3.1536e-05 -8.40981e-05 0.000568616)
(7.95126e-05 0.000181024 0.000465082)
(-4.45705e-05 1.32895e-05 0.000419898)
(0.000198064 -1.96846e-05 0.00067857)
(2.14156e-05 -7.00066e-05 0.000506142)
(1.54246 -4.15638 -2.40567)
(5.80422 -2.57998 0.351861)
(3.83673 -2.13454 -1.70609)
(2.36489 -1.9341 0.0705011)
(1.97641 -1.12273 -0.361833)
(3.8959 -1.2701 -2.08803)
(4.47792 -1.6955 -2.16542)
(0.726359 -2.66248 2.61476)
(0.353001 -2.15587 2.02625)
(-0.488894 -0.42628 0.380022)
(-0.651146 -0.944578 0.883609)
(-1.07669 -0.648518 0.437098)
(-1.04804 -0.44899 0.708922)
(-1.23721 -0.192863 1.00101)
(-1.44206 -1.03804 1.76053)
(-0.742779 -1.09753 1.17344)
(-2.19206 -1.77728 1.18583)
(-2.22503 -1.80624 0.203012)
(-0.733236 -1.06991 1.15461)
(-1.90573 -2.14314 0.692362)
(-1.80945 -1.90682 0.561863)
(-0.864406 -1.06105 -0.332076)
(-3.41149e-05 -3.42976e-05 -2.05109e-14)
(-0.000132594 -4.52248e-05 5.02345e-05)
(0.000178789 5.80953e-06 4.77968e-05)
(-1.43226e-05 -0.000115031 0.000115727)
(3.55044e-05 0.000108245 7.29013e-15)
(7.12448e-05 9.28702e-06 2.10787e-05)
(-9.51829e-05 -1.05924e-05 0.000162852)
(-3.55056e-05 8.33018e-06 7.05824e-05)
(-0.00010521 6.74533e-05 0.000310988)
(-5.82099e-05 2.00244e-05 0.000233652)
(-4.44384e-05 8.15701e-05 0.00032301)
(-7.0373e-06 -1.0719e-05 0.000216534)
(-9.37681e-05 -0.000140852 0.000181251)
(1.43086e-05 1.74208e-05 8.64103e-05)
(7.65697e-05 2.89506e-05 0.000184873)
(-2.50996e-05 -5.89592e-05 0.000282823)
(-0.000113254 -9.97457e-05 0.0003076)
(-1.86623e-06 -2.56348e-05 0.000156513)
(-9.48153e-05 -2.03709e-05 0.00021636)
(-0.000258913 4.07736e-05 7.76712e-05)
(-0.000278182 3.96368e-05 2.96538e-05)
(-0.000269534 3.25378e-05 0.00010215)
(-0.000308774 -3.81875e-05 3.18845e-05)
(-0.000260489 1.91904e-05 0.000124853)
(-0.000232025 3.7597e-05 0.000105684)
(-0.000248257 -2.73469e-05 5.54843e-05)
(2.91011e-05 -3.88192e-05 0.000660494)
(3.98277e-05 -4.71227e-05 0.000652209)
(-0.000114269 -9.87841e-05 0.000802353)
(1.43102e-05 -0.000114427 0.000752464)
(0.502556 -1.83164 1.31614)
(-0.0284311 -1.36024 0.65545)
(0.409707 -1.41675 1.00987)
(0.0264514 -1.37024 0.650729)
(0.344615 -0.836033 0.944303)
(0.233541 -0.997196 0.48495)
(0.0838607 -1.23723 0.455669)
(0.00355308 -0.651226 0.227749)
(-0.0284784 -1.32461 0.218296)
(0.174042 -0.744059 0.494163)
(0.0564634 -0.742959 0.455157)
(0.0687998 -0.698916 0.353603)
(-0.0737622 -0.879038 0.44902)
(-0.0384104 -0.791492 0.222757)
(0.0818076 -0.542212 0.392396)
(-4.28111e-06 -0.000148649 0.000714815)
(5.69994e-05 -2.42201e-05 0.000479348)
(-3.31048e-06 -9.53548e-05 0.000693946)
(8.85477e-05 -4.83132e-05 0.000554904)
(0.000156016 -0.000171737 0.000548811)
(6.98094e-05 -0.000168867 0.000493715)
(2.13235e-05 9.61736e-05 0.000738398)
(-0.000125755 5.34456e-05 0.000624792)
(-0.000212821 -0.000242164 0.000509469)
(0.000112991 -0.000240246 0.000720905)
(0.000194582 -0.000386017 0.00129456)
(-0.000179049 -0.000224857 0.000724836)
(5.50455e-05 -0.000157976 0.000943027)
(-9.92374e-05 -0.000287493 0.000837413)
(-9.20645e-05 8.02225e-07 0.000622738)
(-5.46351e-05 4.65441e-05 0.000751915)
(4.82422e-05 -2.27719e-05 0.0005974)
(0.000149802 6.47672e-05 0.000941653)
(-6.08465e-05 0.000116233 0.000775667)
(-4.96353e-05 8.90076e-05 0.000822716)
(2.95721e-05 3.43843e-05 0.000638619)
(9.28744e-05 0.000120757 0.000866863)
(-6.61524e-05 -0.000105443 0.000992428)
(3.11591e-06 -0.000198934 0.00120892)
(-3.99222e-06 -0.000172414 0.00121268)
(-5.24457e-05 -9.72142e-05 0.000945046)
(-0.000113576 -4.43915e-05 0.000686485)
(-0.000187748 0.000262258 0.000485466)
(-0.000337775 4.73249e-05 0.000886232)
(-9.24092e-05 -3.72857e-05 0.00081683)
(0.000104554 -2.06327e-05 0.00083147)
(3.50229e-05 -6.05584e-05 0.000699202)
(-7.52295e-05 -6.40855e-05 0.000668234)
(-0.000134529 1.82254e-05 0.000803184)
(7.41945e-05 -4.71042e-05 0.0006487)
(0.000147162 -0.000212609 0.00102901)
(1.58957e-05 -2.34281e-05 0.000857669)
(0.000148704 0.000174715 0.000300312)
(-2.43563e-05 7.02485e-05 0.000580013)
(-8.14251e-05 -3.17199e-05 0.000755586)
(-0.000268411 -3.05885e-05 0.000949685)
(-1.85807e-05 7.49734e-06 0.000553226)
(-0.000113906 8.78926e-05 0.000881408)
(2.27218e-05 0.000214852 0.000936671)
(-9.50865e-05 2.61567e-05 0.000793607)
(-4.73467e-06 0.00028292 0.00113131)
(3.09657 2.79071 4.68782)
(2.8194 0.590347 6.9801)
(3.44716 5.11889 -0.607899)
(4.32038 4.89046 -0.297547)
(5.61657 6.18324 -1.79308)
(6.45209 3.95492 -1.82393)
(6.60843 3.99024 -1.77116)
(7.76636 9.16756 -0.00474716)
(0.196015 -0.350313 -2.23074)
(19.1451 22.8525 -10.6489)
(2.86723 -4.41618 -3.97659)
(-5.34424 -8.1783 -2.59335)
(-1.18907 -3.57682 -2.28767)
(13.135 -17.6723 -7.0488)
(47.6975 84.5412 29.9194)
(8.66499 6.5917 -12.8387)
(-44.7687 -5.13052 -11.3641)
(8.71717 6.34781 -1.3481)
(11.3067 -1.23073 -10.7656)
(3.65603 -3.39311 -1.65436)
(7.39872 -2.38154 -6.93029)
(3.09652 -0.062364 -2.83355)
(7.91022 -1.58734 -9.2344)
(-4.30453 0.633387 -1.8603)
(-4.68286 0.353809 -1.29274)
(0.469433 -0.471729 -2.86723)
(6.63567 -2.48105 -3.14833)
(-2.20102 -1.71738 -0.476045)
(4.34302 -84.0507 26.6985)
(1.56775 -54.4722 15.1072)
(2.69043 -4.28975 -4.44105)
(0.398765 12.2198 3.12519)
(14.6103 -43.9408 21.9183)
(-0.377441 -1.92844 -8.11484)
(0.536318 0.168637 0.362942)
(0.469288 -0.0649852 0.332294)
(0.386305 0.0278074 0.398339)
(0.389775 0.150533 0.392206)
(0.366127 0.0449593 0.393001)
(0.345282 0.062345 0.441399)
(0.310646 0.0435807 0.440205)
(0.442465 -0.157997 0.383929)
(0.342932 -0.0488621 0.48916)
(-9.52895e-05 -2.04739e-05 0.000594097)
(-9.21163e-05 -2.79355e-05 0.000661258)
(2.409e-06 -5.31818e-05 0.000583789)
(-1.51164e-05 2.07654e-06 0.000755917)
(-5.94668e-05 5.90842e-06 0.000493579)
(-6.27528e-05 -9.34359e-06 0.000664017)
(-7.98982e-05 -1.43609e-06 0.000517521)
(0.000140161 -1.62064e-05 0.000815871)
(6.62635e-05 1.11672e-05 0.000633791)
(-1.93836e-05 6.53374e-05 0.000639035)
(-1.25072e-05 3.85076e-05 0.000758907)
(-8.58637e-06 -0.000101222 0.000866399)
(8.98521e-05 -0.000205835 0.00112656)
(-5.185e-05 -4.7124e-05 0.000757229)
(-7.47088e-05 -0.000106251 0.000863699)
(-0.124486 0.0259363 0.500724)
(-0.0915332 0.113334 0.592688)
(-0.194926 0.218193 0.666501)
(-0.155373 0.21621 0.686782)
(0.105531 -0.311383 0.704065)
(0.105925 -0.409937 0.615871)
(0.0431737 -0.37939 0.706716)
(0.0702416 -0.485752 0.668491)
(-0.000166345 0.00017374 0.000658338)
(-2.5166e-05 0.0001366 0.000643681)
(-7.22975e-05 0.000146412 0.00073589)
(-9.48369e-05 3.99289e-05 0.000648049)
(-0.000162117 5.15134e-05 0.000590902)
(-2.56276e-05 8.28559e-05 0.000818201)
(-0.000187274 3.63016e-05 0.000594391)
(-9.21e-05 7.49207e-05 0.000664445)
(-9.9773e-05 0.000132536 0.000692732)
(-9.54418e-05 0.000108259 0.00066181)
(-7.21299e-05 0.000177287 0.000717243)
(-7.5152e-05 7.38499e-05 0.000319415)
(-0.000126936 1.45983e-05 0.000491904)
(-0.00011287 -8.94557e-05 0.000427424)
(-0.000122136 -8.24267e-05 0.000524904)
(-3.44055e-05 -5.01948e-05 0.000228905)
(-7.04555e-05 -3.54016e-05 0.000164165)
(-0.000132621 -4.51991e-05 0.000272925)
(-3.26921e-05 -1.83798e-05 0.000208005)
(-6.96367e-05 -2.32801e-05 0.000117255)
(-0.000119565 6.20429e-06 1.31876e-05)
(-7.71585e-05 -2.49689e-05 7.94812e-05)
(-0.000250981 -8.64145e-05 0.000413371)
(-0.000104448 -0.000186346 0.000489416)
(-0.000233927 -0.000149283 0.000311922)
(-0.000133402 -8.09948e-05 0.000177757)
(-0.000229918 -0.000130621 0.00015112)
(-0.000188031 -8.87937e-05 3.91857e-05)
(-0.000280758 -5.54257e-05 0.000274958)
(-0.000208872 -0.000225871 0.000398962)
(-0.000296207 2.31067e-05 0.000337023)
(-0.000206466 -0.000105155 -6.14211e-15)
(-0.000158295 -9.61778e-05 0.000177327)
(-0.000321365 -0.000262567 0.000553544)
(0.000193472 0.000144391 0.000480595)
(-0.000109838 -0.000197716 0.000391387)
(0.000168169 0.000106305 0.000403767)
(-0.00013135 -1.65592e-06 0.000234228)
(-0.000132149 7.33584e-05 2.82153e-05)
(-0.000154579 -0.000104947 0.000368639)
(-0.000118193 -5.75905e-06 0.00014347)
(-0.000169451 -7.39154e-05 0.000291067)
(0.00016513 0.000110387 0.00037599)
(-0.000245341 -4.92061e-05 0.000361283)
(-8.37457e-05 -4.99964e-05 0.000222266)
(-0.000146217 1.63698e-05 0.000276271)
(-0.00016973 5.41351e-05 0.000308311)
(-0.000115746 7.56917e-07 0.000281527)
(-0.000136876 4.81121e-05 0.000333461)
(-0.000150489 9.45622e-05 0.00041193)
(-0.00018 8.59088e-05 0.000380282)
(-0.000184599 -2.09075e-05 0.000264287)
(-0.000143149 0.00011392 0.000437183)
(-0.0001165 3.47909e-05 0.000296014)
(-0.107289 -0.10419 0.737174)
(0.0151111 -0.140372 0.613045)
(-0.135185 -0.235048 0.733802)
(-0.338293 -0.206161 0.771212)
(-2.39383e-05 -0.000128634 0.000536386)
(6.2839e-05 -4.17163e-05 0.000444322)
(-8.69397 -4.25525 -3.10388)
(-5.89585 -1.09372 2.38056)
(-4.55767 0.671484 5.08157)
(-7.28308 -2.26447 -0.127506)
(0.0409754 0.14017 0.0822296)
(0.0179193 0.206017 0.050529)
(-0.0542867 0.176264 0.0550941)
(-0.0165186 0.16845 -0.141081)
(0.0263344 0.0987494 0.0685643)
(-0.0170216 -0.0232152 0.0765355)
(-0.0687811 -0.0558988 -0.0853553)
(-0.605562 -0.0411539 -0.232291)
(-0.51463 0.418975 -0.161217)
(-0.32876 -0.025407 -0.188996)
(-0.0295685 -0.908692 -0.544667)
(-0.771634 0.622014 -0.292857)
(-0.698485 0.611349 -0.357839)
(-0.896898 0.457462 -0.24391)
(-1.03146 0.421814 -0.413505)
(-0.999496 0.937422 -0.793217)
(-1.38733 0.364085 -1.28205)
(-0.526837 -0.533376 -0.337916)
(-1.86096 -0.505054 -0.772505)
(-2.13178 0.0820111 -1.07846)
(-1.46645 -1.06289 -2.61549)
(-1.50628 0.154226 -1.57528)
(-1.34212 1.23936 -0.841943)
(-0.756011 0.43331 -0.191911)
(-1.69662 -0.430603 -1.34819)
(-2.46251 1.46815 3.64015)
(-2.57123 0.844319 4.52792)
(-5.43306 -0.179561 8.57704)
(-4.96807 1.08228 5.19383)
(-4.48574 0.758497 5.68341)
(-4.68612 0.207539 6.58851)
(-2.64448 4.88282 2.5599)
(0.275597 -0.183308 -0.0764904)
(0.232182 -0.209566 -0.0674326)
(0.252767 -0.192641 -0.0498665)
(0.208806 -0.218818 -0.0471261)
(0.293825 0.160817 0.314616)
(0.306822 0.170126 0.290327)
(0.321994 0.265462 0.313781)
(0.359659 0.238518 0.316418)
(0.133196 0.180025 0.102279)
(0.0829046 0.164386 0.11046)
(0.179252 0.115782 0.0932101)
(0.123787 0.113394 0.114168)
(-7.62729e-05 1.46957e-05 0.000140982)
(-0.000101761 1.64994e-05 0.000208109)
(-9.8396e-05 2.78325e-06 0.000151508)
(-9.72777e-05 -9.51656e-06 0.000198092)
(-3.49763e-05 1.38906e-05 0.000149561)
(-5.38927e-05 -2.21599e-06 9.55839e-05)
(-6.83173e-05 2.02419e-05 0.000181363)
(-3.66499e-05 -1.05546e-05 0.000159921)
(-5.7193e-05 6.04057e-05 0.000294905)
(-0.000118084 6.60944e-05 0.000330388)
(-7.73466e-05 7.23476e-05 0.000266414)
(-0.000131991 -5.76789e-05 0.00029837)
(-0.000105414 -4.3496e-05 0.00028396)
(-0.000103048 -6.48786e-05 0.000273126)
(-0.000180844 -4.34512e-05 0.000238273)
(-7.39518e-05 -3.69646e-05 0.000305496)
(-9.79906e-05 -1.37673e-05 0.000324918)
(-0.000164533 -7.8487e-05 0.000543917)
(-9.75191e-05 -0.00036524 0.000638753)
(-0.000234888 4.75982e-05 0.000681998)
(-0.000109272 -0.000224912 0.000717087)
(-0.000465774 -0.000687933 0.000454899)
(-0.000292401 -0.000547315 0.00058435)
(-0.000460562 -0.00060741 0.000615944)
(-0.000257756 -0.000434101 0.000579443)
(-8.74996e-05 -2.16462e-05 0.000312849)
(2.15608e-05 6.70151e-05 0.000364759)
(-0.000122255 -7.89481e-05 0.000523603)
(-8.53902e-05 -5.92738e-05 0.000252029)
(-0.168585 -0.0650619 0.457033)
(-0.20386 0.0134595 0.282848)
(-0.0229426 0.0626185 0.278086)
(-0.0338737 0.0280605 0.305632)
(-0.0739289 0.0283549 0.236311)
(-0.108974 0.105746 0.0335436)
(0.0228262 0.0468144 0.263928)
(-0.19307 0.0708582 0.0456099)
(6.9526 -7.64655 0.295063)
(13.0337 -4.21153 -18.3084)
(4.38417 -4.71012 0.538457)
(11.8306 -2.90312 -18.7284)
(3.14708 -1.92053 -1.39871)
(4.13735 -3.59483 -7.12868)
(3.21956 -1.01231 -11.183)
(0.152154 0.132887 0.122386)
(0.132802 0.145379 0.140865)
(0.0750789 0.329569 0.127133)
(0.0879944 0.31632 0.119374)
(-0.0865511 0.569072 0.20702)
(-0.146368 0.621122 0.186538)
(-0.515558 0.608468 -0.4297)
(-0.277338 0.574694 -0.279796)
(0.131679 0.128828 0.14395)
(0.152076 0.10846 0.131495)
(0.152344 0.133692 0.122597)
(0.170341 2.13398 0.366336)
(-0.185168 2.72207 -0.3183)
(-0.345952 3.02303 -0.492814)
(0.338504 1.50196 -0.137799)
(0.409986 1.27324 0.0150167)
(-0.353119 1.35054 0.779935)
(-0.0492828 1.18507 0.623507)
(0.0741309 2.08058 -0.333442)
(0.465834 1.14711 -0.404911)
(0.512966 1.04759 -0.32393)
(-0.358063 2.48473 -0.677044)
(0.0164506 1.47819 1.70485)
(-0.00528564 2.99577 -0.442255)
(-0.88426 1.58545 -0.473353)
(-0.780998 2.38794 -1.125)
(-0.664177 0.719245 -0.331556)
(-0.620717 0.904691 -0.891006)
(-0.261517 0.670783 0.310119)
(-0.278883 0.676711 0.330292)
(-0.332121 0.654142 0.299371)
(-0.346061 0.6608 0.319077)
(-0.0833878 -0.384032 -1.20109)
(2.84936 0.425856 -0.919115)
(3.71108 4.68725 20.1205)
(3.86256 2.74174 -6.13748)
(-1.699 7.44024 -3.84705)
(-2.68385 -5.33174 4.9157)
(3.37984 -1.17756 0.203387)
(3.2878 -1.40893 -2.05608)
(-0.77848 -2.21794 -1.76804)
(-1.23864 -3.12283 -1.79371)
(-2.19113 -1.54067 -5.00709)
(0.600927 -0.248525 -0.225259)
(0.678639 -0.0964712 0.216356)
(0.604829 -0.119786 -0.0653816)
(-1.28616 0.868418 -2.30697)
(-0.499091 0.354227 -1.02662)
(-0.689546 0.573714 -0.148374)
(-0.738962 3.4119 0.685249)
(-0.531932 2.74419 0.41474)
(-0.952768 0.0402807 0.362616)
(-0.872282 -0.065568 0.143174)
(-0.922202 0.00475133 0.355345)
(-0.895694 0.0745781 0.226364)
(-0.85004 0.0574238 0.268734)
(-0.860531 0.147268 0.369981)
(-1.09199 0.0301311 -0.219993)
(-1.04558 0.148739 -1.10615)
(-2.14207 -0.155369 -0.351463)
(-1.48848 0.118102 -1.2225)
(-1.91893 0.140103 -1.00818)
(-1.62045 0.282141 -0.17969)
(0.385666 2.18838 -2.07953)
(0.126469 0.16495 -3.94379)
(-0.246104 0.300394 -1.66878)
(-2.00775 1.02968 -1.25381)
(7.8363 3.19579 -1.61319)
(-7.8598 3.77872 -3.94336)
(1.71387 1.11175 -1.41666)
(3.35521 0.188461 -2.80583)
(8.90051 -7.50773 -5.22768)
(2.53818 -2.00338 -3.60436)
(0.921056 0.411763 -2.62402)
(1.73766 0.337231 -2.53615)
(-0.341329 -0.693558 -3.8738)
(3.03706 -1.38003 -1.85383)
(-3.62828 0.0826171 0.853603)
(-2.64877 -0.333254 0.293389)
(-3.42225 0.796665 0.0138567)
(-2.95482 0.21119 -0.315403)
(-5.36642 2.17725 -2.655)
(-6.91924 4.05671 -1.61462)
(-2.87445 -0.586805 -1.95696)
(-3.01713 0.787999 -0.597436)
(-3.59705 -0.921619 1.1156)
(-3.79092 -0.869994 0.439161)
(-3.34158 -0.852588 0.593822)
(-2.72831 -1.02042 -1.27896)
(-2.06892 -1.40829 -2.71577)
(-3.49296 -1.30896 -1.71192)
(-5.27552e-05 0.000107847 0.000702667)
(6.26664e-06 3.63374e-05 0.000809801)
(-6.60625e-06 9.08529e-05 0.000509422)
(-7.36445e-05 9.6242e-05 0.00051222)
(1.43365e-05 0.000112534 0.000516417)
(4.12676e-05 0.00012833 0.000545096)
(2.01747e-05 6.39827e-05 0.00055375)
(-3.78485e-05 0.000124294 0.000650817)
(1.50467e-05 -7.10794e-05 0.000906476)
(-1.45488e-05 5.41139e-07 0.000773878)
(-8.65722e-06 -4.98574e-05 0.000684825)
(3.51236e-05 -8.11726e-06 0.000660035)
(1.13384e-05 0.000108932 0.000304472)
(4.08574e-06 0.000105601 0.00022851)
(-3.33855e-05 0.000117281 5.2308e-15)
(-3.23694e-06 0.000116643 0.000177261)
(0.000131045 0.000145944 8.50007e-06)
(3.30254e-06 9.99992e-05 0.000100928)
(-0.669963 0.596969 0.0867268)
(-0.640272 0.556358 -0.100795)
(-0.746289 0.74567 -0.00465922)
(-0.792483 0.947111 0.195508)
(-4.24255 -4.69026 -4.88455)
(-0.175384 -1.95107 -2.40422)
(-5.10388 -2.13898 -6.6407)
(-3.19861 -0.422362 4.29253)
(-1.38244 -2.35983 -1.65314)
(-3.26711 0.0643509 -0.49259)
(-2.90834 -2.86081 -0.955647)
(0.780332 0.801581 -2.33528)
(1.45281 -0.00100504 -2.79553)
(2.81506 0.483765 -3.68677)
(1.39366 0.042253 -3.03502)
(14.6362 -10.7285 -31.9958)
(35.0608 -31.6775 -16.7903)
(0.100096 -18.083 -9.66588)
(-20.7813 6.52106 -8.09526)
(-2.90631 -0.130599 -1.89687)
(-3.73228 1.36637 -2.37624)
(-18.451 16.2534 28.7673)
(-0.324918 -7.65121 -25.7871)
(0.068472 0.867788 -1.0885)
(-0.302366 0.696807 0.0497407)
(-0.397709 0.580289 -0.529808)
(-0.266919 0.640348 0.0320584)
(-0.811419 0.858971 -1.57686)
(-0.632935 1.7237 -0.89108)
(-0.643283 0.480394 -1.03914)
(-0.0538867 0.546208 0.271306)
(-0.131195 0.566211 0.250953)
(-0.148556 0.476475 -0.000530039)
(-0.16189 0.328271 -0.148999)
(-0.0404128 0.2337 0.00566474)
(-0.183862 0.320635 -0.175528)
(0.0234285 0.239553 0.156781)
(0.0242269 0.0926536 0.189206)
(-0.0686702 0.0741022 0.271832)
(0.0261778 0.107833 0.199983)
(-0.150285 0.267408 0.226198)
(-0.0537565 -0.0168566 -0.27137)
(0.0124822 -0.0251699 -0.122929)
(-0.00735901 -0.03374 -0.385561)
(0.0528167 -0.0511975 -0.236737)
(0.0273275 0.022533 -0.220561)
(-0.0144816 -0.127717 -0.0786623)
(-0.110882 -0.237155 -0.251067)
(3.4154 -2.57979 -2.51928)
(4.03553 0.485883 -8.18492)
(4.64917 -0.350091 -2.49141)
(-0.454133 -0.156858 -8.06657)
(-62.2816 -128.205 30.8094)
(5.57623 -9.86141 -3.50344)
(0.51934 -4.06109 -6.86227)
(-1.54514 0.742648 -4.64415)
(-1.48876 1.99914 -3.93758)
(0.888298 3.30421 -5.22763)
(-0.735737 -1.44787 -7.12003)
(-0.884833 -0.0575465 -3.68376)
(3.23381 -4.86863 -0.576612)
(-1.49957 -0.147934 -5.00951)
(1.44847 -2.43129 -3.11717)
(3.05543 -2.28691 -4.87544)
(0.916981 0.532294 -4.50853)
(-0.91733 -1.43774 -6.98351)
(4.95899 -2.09607 -2.84115)
(6.57153 -1.4543 -2.42893)
(-7.96115e-05 -3.71535e-05 0.000245133)
(-6.42184e-05 -1.89008e-05 0.00023096)
(-6.05615e-05 -1.85931e-05 0.000261253)
(-5.18334e-05 -5.26627e-05 0.000285391)
(-0.000121669 3.82896e-07 0.000210629)
(-0.000113514 -1.1525e-05 0.000232744)
(-3.60337e-05 2.86555e-06 0.000223929)
(-7.92442e-05 -7.0957e-05 0.000208116)
(-0.000171258 -9.35829e-06 0.000188232)
(-0.000146691 -2.6642e-05 0.000163976)
(-0.000157242 -1.56832e-05 0.000166347)
(-2.40265e-05 2.69327e-06 1.32918e-15)
(-7.92289e-05 -1.336e-05 8.65291e-05)
(-0.000122823 1.86792e-05 0.000106122)
(-9.17059e-05 -4.66183e-05 0.000205395)
(0.026175 0.0280746 0.781026)
(-0.0781956 0.0962823 0.890713)
(-0.0803904 0.0898578 0.890005)
(0.0295076 -0.15455 0.607266)
(0.0446212 -0.0539642 0.698987)
(-0.0399409 -0.23769 0.180937)
(-0.188467 -0.182586 0.34894)
(-0.114776 -0.238956 0.315735)
(-0.221044 -0.197868 0.443659)
(-0.125343 -0.214532 0.36729)
(-0.0143035 -0.236287 0.232179)
(-0.0435504 -0.235284 0.211838)
(-0.319682 -0.314934 0.496113)
(-0.201009 -0.2561 0.518295)
(-0.027645 -0.257471 0.368328)
(-0.065704 -0.33555 0.326704)
(-0.149893 -0.169874 0.629553)
(-0.0649376 -0.255732 0.44433)
(-0.000123292 5.8088e-05 0.000141269)
(-0.000107357 2.11792e-05 0.000212161)